HEADER
"PSFversion" "1.00"
"simulator" "spectre"
"version" "14.1.0.848.isr14"
"date" "2:48:02 PM, Fri Aug 25, 2017"
"design" "// Generated for: spectre"
"analysis type" "info"
"analysis name" "designParamVals"
"analysis description" "Circuit Information"
"xVecSorted" "unknown"
"tolerance.relative" 0.000100000
TYPE
"top-level" STRUCT(
"temp" FLOAT DOUBLE
"tnom" FLOAT DOUBLE
"time" FLOAT DOUBLE
"IDC" FLOAT DOUBLE
"VDS" FLOAT DOUBLE
"L" FLOAT DOUBLE
"W" FLOAT DOUBLE
"pi" FLOAT DOUBLE
"e0" FLOAT DOUBLE
"ersi" FLOAT DOUBLE
"mu0" FLOAT DOUBLE
"eoxdepo" FLOAT DOUBLE
"pcrsi" FLOAT DOUBLE
"mmres" FLOAT DOUBLE
"mmcap" FLOAT DOUBLE
"mmsbd" FLOAT DOUBLE
"mmbip" FLOAT DOUBLE
"mvth0" FLOAT DOUBLE
"mbeta" FLOAT DOUBLE
"mbody" FLOAT DOUBLE
"mmdio" FLOAT DOUBLE
"xlovn" FLOAT DOUBLE
"xnsubon" FLOAT DOUBLE
"xtoxon" FLOAT DOUBLE
"xtoxovon" FLOAT DOUBLE
"xvfbon" FLOAT DOUBLE
"xwotn" FLOAT DOUBLE
"xvfblwn" FLOAT DOUBLE
"xctln" FLOAT DOUBLE
"xthesatln" FLOAT DOUBLE
"xalp1l1n" FLOAT DOUBLE
"xdlqn" FLOAT DOUBLE
"xmueon" FLOAT DOUBLE
"xnpckn" FLOAT DOUBLE
"xvfbwn" FLOAT DOUBLE
"xlovntw" FLOAT DOUBLE
"xnsubontw" FLOAT DOUBLE
"xtoxontw" FLOAT DOUBLE
"xtoxovontw" FLOAT DOUBLE
"xvfbontw" FLOAT DOUBLE
"xwotntw" FLOAT DOUBLE
"xvfblwntw" FLOAT DOUBLE
"xctlntw" FLOAT DOUBLE
"xthesatlntw" FLOAT DOUBLE
"xalp1l1ntw" FLOAT DOUBLE
"xdlqntw" FLOAT DOUBLE
"xmueontw" FLOAT DOUBLE
"xnpckntw" FLOAT DOUBLE
"xvfbwntw" FLOAT DOUBLE
"xlapnth" FLOAT DOUBLE
"xtoxonth" FLOAT DOUBLE
"xwotnth" FLOAT DOUBLE
"xthesatlnth" FLOAT DOUBLE
"xvfbwnth" FLOAT DOUBLE
"xlovnll" FLOAT DOUBLE
"xnsubonll" FLOAT DOUBLE
"xtoxonll" FLOAT DOUBLE
"xtoxovonll" FLOAT DOUBLE
"xvfbonll" FLOAT DOUBLE
"xwotnll" FLOAT DOUBLE
"xvfblwnll" FLOAT DOUBLE
"xctlnll" FLOAT DOUBLE
"xthesatlnll" FLOAT DOUBLE
"xalp1l1nll" FLOAT DOUBLE
"xdlqnll" FLOAT DOUBLE
"xmueonll" FLOAT DOUBLE
"xnpcknll" FLOAT DOUBLE
"xvfbwnll" FLOAT DOUBLE
"xlovp" FLOAT DOUBLE
"xnsubop" FLOAT DOUBLE
"xtoxop" FLOAT DOUBLE
"xtoxovop" FLOAT DOUBLE
"xvfbop" FLOAT DOUBLE
"xvfblp" FLOAT DOUBLE
"xvfblwp" FLOAT DOUBLE
"xctlp" FLOAT DOUBLE
"xthesatlp" FLOAT DOUBLE
"xalplp" FLOAT DOUBLE
"xdlqp" FLOAT DOUBLE
"xmueop" FLOAT DOUBLE
"xthesatlwp" FLOAT DOUBLE
"xvfbwp" FLOAT DOUBLE
"xlovpll" FLOAT DOUBLE
"xnsubopll" FLOAT DOUBLE
"xtoxopll" FLOAT DOUBLE
"xtoxovopll" FLOAT DOUBLE
"xvfbopll" FLOAT DOUBLE
"xvfblwpll" FLOAT DOUBLE
"xctlpll" FLOAT DOUBLE
"xthesatlpll" FLOAT DOUBLE
"xalplpll" FLOAT DOUBLE
"xdlqpll" FLOAT DOUBLE
"xmueopll" FLOAT DOUBLE
"xnpckpll" FLOAT DOUBLE
"xthesatlwpll" FLOAT DOUBLE
"xvfbwpll" FLOAT DOUBLE
"xlappth" FLOAT DOUBLE
"xtoxopth" FLOAT DOUBLE
"xvfbopth" FLOAT DOUBLE
"xwotpth" FLOAT DOUBLE
"xvfblpth" FLOAT DOUBLE
"xthesatlpth" FLOAT DOUBLE
"xdjsn" FLOAT DOUBLE
"xdcjn" FLOAT DOUBLE
"xdcjswn" FLOAT DOUBLE
"xileakn" FLOAT DOUBLE
"xdjsnwx" FLOAT DOUBLE
"xdcjnwx" FLOAT DOUBLE
"xdcjswnwx" FLOAT DOUBLE
"xileaknwx" FLOAT DOUBLE
"xdjspnw" FLOAT DOUBLE
"xdcjpnw" FLOAT DOUBLE
"xdcjswpnw" FLOAT DOUBLE
"xileakpnw" FLOAT DOUBLE
"xdjspisx" FLOAT DOUBLE
"xdcjpisx" FLOAT DOUBLE
"xdcjswpisx" FLOAT DOUBLE
"xdcjpwpi" FLOAT DOUBLE
"xdcjswpwpi" FLOAT DOUBLE
"xdjsp" FLOAT DOUBLE
"xdcjp" FLOAT DOUBLE
"xdcjswp" FLOAT DOUBLE
"xlovnm" FLOAT DOUBLE
"xnsubonm" FLOAT DOUBLE
"xtoxonm" FLOAT DOUBLE
"xtoxovonm" FLOAT DOUBLE
"xvfbonm" FLOAT DOUBLE
"xwotnm" FLOAT DOUBLE
"xvfblwnm" FLOAT DOUBLE
"xfol1nm" FLOAT DOUBLE
"xctlnm" FLOAT DOUBLE
"xthesatlnm" FLOAT DOUBLE
"xalp1l1nm" FLOAT DOUBLE
"xdlqnm" FLOAT DOUBLE
"xmueonm" FLOAT DOUBLE
"xvfbwnm" FLOAT DOUBLE
"xlovnmtw" FLOAT DOUBLE
"xnsubonmtw" FLOAT DOUBLE
"xtoxonmtw" FLOAT DOUBLE
"xtoxovonmtw" FLOAT DOUBLE
"xvfbonmtw" FLOAT DOUBLE
"xwotnmtw" FLOAT DOUBLE
"xvfblwnmtw" FLOAT DOUBLE
"xfol1nmtw" FLOAT DOUBLE
"xctlnmtw" FLOAT DOUBLE
"xthesatlnmtw" FLOAT DOUBLE
"xalp1l1nmtw" FLOAT DOUBLE
"xdlqnmtw" FLOAT DOUBLE
"xmueonmtw" FLOAT DOUBLE
"xvfbwnmtw" FLOAT DOUBLE
"xlovpm" FLOAT DOUBLE
"xnsubopm" FLOAT DOUBLE
"xtoxopm" FLOAT DOUBLE
"xtoxovopm" FLOAT DOUBLE
"xvfbopm" FLOAT DOUBLE
"xwotpm" FLOAT DOUBLE
"xvfblpm" FLOAT DOUBLE
"xvfblwpm" FLOAT DOUBLE
"xctlpm" FLOAT DOUBLE
"xthesatlpm" FLOAT DOUBLE
"xalplpm" FLOAT DOUBLE
"xdlqpm" FLOAT DOUBLE
"xmueopm" FLOAT DOUBLE
"xvfbwpm" FLOAT DOUBLE
"xdcjdivpnp" FLOAT DOUBLE
"xdcjswdivpnp" FLOAT DOUBLE
"xdjsdivpnp" FLOAT DOUBLE
"xcoropopnd" FLOAT DOUBLE
"xcoropoppd" FLOAT DOUBLE
"xcoropopnpc" FLOAT DOUBLE
"xcorrpcopnpc" FLOAT DOUBLE
"xcorrcthkopnpc" FLOAT DOUBLE
"xcoropopppc" FLOAT DOUBLE
"xcorrpcopppc" FLOAT DOUBLE
"xcorrcthkopppc" FLOAT DOUBLE
"xcoropoprrp" FLOAT DOUBLE
"xcorrpcoprrp" FLOAT DOUBLE
"xcorrcthkoprrp" FLOAT DOUBLE
"xcordlbnoprrp" FLOAT DOUBLE
"xcoropoprpp" FLOAT DOUBLE
"xcorrpcoprpp" FLOAT DOUBLE
"xcorrcthkoprpp" FLOAT DOUBLE
"xcoropsblkn" FLOAT DOUBLE
"xcoropsblkp" FLOAT DOUBLE
"xcormimqamim" FLOAT DOUBLE
"xcormimpmim" FLOAT DOUBLE
"xcordelmqmim" FLOAT DOUBLE
"xcordelmtmim" FLOAT DOUBLE
"xcorvftmim" FLOAT DOUBLE
"xcore1rsmim" FLOAT DOUBLE
"xcoramrsmim" FLOAT DOUBLE
"xcormtrsmim" FLOAT DOUBLE
"xcoramtmim" FLOAT DOUBLE
"xcormttmim" FLOAT DOUBLE
"xcore1tmim" FLOAT DOUBLE
"xcorm1tvart" FLOAT DOUBLE
"xcorcomvvart" FLOAT DOUBLE
"xcorpcrsivart" FLOAT DOUBLE
"xcorm1tvarm" FLOAT DOUBLE
"xcorcomvvarm" FLOAT DOUBLE
"xcorpcrsivarm" FLOAT DOUBLE
"xcorpcrenvarm" FLOAT DOUBLE
"xcorm1tpcdcap" FLOAT DOUBLE
"xcorcomvpcdcap" FLOAT DOUBLE
"xcorpcrsipcdcap" FLOAT DOUBLE
"xdjsesdndsx" FLOAT DOUBLE
"xdcjesdndsx" FLOAT DOUBLE
"xdcjswesdndsx" FLOAT DOUBLE
"xnwrs" FLOAT DOUBLE
"dnwrs" FLOAT DOUBLE
"nwrs" FLOAT DOUBLE
"pwrs" FLOAT DOUBLE
"pwrv" FLOAT DOUBLE
"nrnw" FLOAT DOUBLE
"xcorres" FLOAT DOUBLE
"xcorcap" FLOAT DOUBLE
"xcorind" FLOAT DOUBLE
"xcorrx" FLOAT DOUBLE
"xcorrxres" FLOAT DOUBLE
"xcordio" FLOAT DOUBLE
"tdelrx" FLOAT DOUBLE
"ndelrx" FLOAT DOUBLE
"delrx" FLOAT DOUBLE
"xcorpc" FLOAT DOUBLE
"tdelpc" FLOAT DOUBLE
"lwbpc" FLOAT DOUBLE
"xistnw" FLOAT DOUBLE
"delnw" FLOAT DOUBLE
"xpcthk" FLOAT DOUBLE
"dpcthk" FLOAT DOUBLE
"xpcsti" FLOAT DOUBLE
"dpcsti" FLOAT DOUBLE
"oppcthk" FLOAT DOUBLE
"oppcstin" FLOAT DOUBLE
"oppcstif" FLOAT DOUBLE
"xistm1" FLOAT DOUBLE
"distm1" FLOAT DOUBLE
"xistm2" FLOAT DOUBLE
"distm2" FLOAT DOUBLE
"xistm3" FLOAT DOUBLE
"distm3" FLOAT DOUBLE
"xistm4" FLOAT DOUBLE
"distm4" FLOAT DOUBLE
"xistm5" FLOAT DOUBLE
"distm5" FLOAT DOUBLE
"xistmt" FLOAT DOUBLE
"distmt" FLOAT DOUBLE
"xistam" FLOAT DOUBLE
"distam" FLOAT DOUBLE
"xiste1" FLOAT DOUBLE
"diste1" FLOAT DOUBLE
"xistma" FLOAT DOUBLE
"distma" FLOAT DOUBLE
"delm1" FLOAT DOUBLE
"delm1i" FLOAT DOUBLE
"delm2" FLOAT DOUBLE
"delm3" FLOAT DOUBLE
"delm4" FLOAT DOUBLE
"delm5" FLOAT DOUBLE
"delmt" FLOAT DOUBLE
"delam" FLOAT DOUBLE
"dele1" FLOAT DOUBLE
"delma" FLOAT DOUBLE
"xpmsxt" FLOAT DOUBLE
"dpmsxt" FLOAT DOUBLE
"xcapct" FLOAT DOUBLE
"dcapct" FLOAT DOUBLE
"xm1t" FLOAT DOUBLE
"dm1t" FLOAT DOUBLE
"xm2t" FLOAT DOUBLE
"dm2t" FLOAT DOUBLE
"xm3t" FLOAT DOUBLE
"dm3t" FLOAT DOUBLE
"xm4t" FLOAT DOUBLE
"dm4t" FLOAT DOUBLE
"xm5t" FLOAT DOUBLE
"dm5t" FLOAT DOUBLE
"xmtt" FLOAT DOUBLE
"dmtt" FLOAT DOUBLE
"xamt" FLOAT DOUBLE
"damt" FLOAT DOUBLE
"xe1t" FLOAT DOUBLE
"de1t" FLOAT DOUBLE
"xmat" FLOAT DOUBLE
"dmat" FLOAT DOUBLE
"xm1m2t" FLOAT DOUBLE
"dm1m2t" FLOAT DOUBLE
"xm2m3t" FLOAT DOUBLE
"dm2m3t" FLOAT DOUBLE
"xm3m4t" FLOAT DOUBLE
"dm3m4t" FLOAT DOUBLE
"xm4m5t" FLOAT DOUBLE
"dm4m5t" FLOAT DOUBLE
"xm1mtt" FLOAT DOUBLE
"dm1mtt" FLOAT DOUBLE
"xmxmtt" FLOAT DOUBLE
"dmxmtt" FLOAT DOUBLE
"xmtmlt" FLOAT DOUBLE
"dmtmlt" FLOAT DOUBLE
"xmtamt" FLOAT DOUBLE
"dmtamt" FLOAT DOUBLE
"xmte1t" FLOAT DOUBLE
"dmte1t" FLOAT DOUBLE
"xe1mat" FLOAT DOUBLE
"de1mat" FLOAT DOUBLE
"dck1s" FLOAT DOUBLE
"capct" FLOAT DOUBLE
"capcti" FLOAT DOUBLE
"ck1s" FLOAT DOUBLE
"ck1sf" FLOAT DOUBLE
"m1tn" FLOAT DOUBLE
"m1t" FLOAT DOUBLE
"m1tin" FLOAT DOUBLE
"m1ti" FLOAT DOUBLE
"m1tvn" FLOAT DOUBLE
"m1tv" FLOAT DOUBLE
"m2tn" FLOAT DOUBLE
"m2t" FLOAT DOUBLE
"m3tn" FLOAT DOUBLE
"m3t" FLOAT DOUBLE
"m4tn" FLOAT DOUBLE
"m4t" FLOAT DOUBLE
"m5tn" FLOAT DOUBLE
"m5t" FLOAT DOUBLE
"mttn" FLOAT DOUBLE
"mtt" FLOAT DOUBLE
"amt" FLOAT DOUBLE
"e1t" FLOAT DOUBLE
"mat" FLOAT DOUBLE
"m1m2tn" FLOAT DOUBLE
"m1m2t" FLOAT DOUBLE
"m2m3tn" FLOAT DOUBLE
"m2m3t" FLOAT DOUBLE
"m3m4tn" FLOAT DOUBLE
"m3m4t" FLOAT DOUBLE
"m4m5tn" FLOAT DOUBLE
"m4m5t" FLOAT DOUBLE
"m1mttn" FLOAT DOUBLE
"m1mtt" FLOAT DOUBLE
"mxmttn" FLOAT DOUBLE
"mxmtt" FLOAT DOUBLE
"mtamt" FLOAT DOUBLE
"mte1t" FLOAT DOUBLE
"e1mat" FLOAT DOUBLE
"xrsub" FLOAT DOUBLE
"drsub" FLOAT DOUBLE
"xrsubc" FLOAT DOUBLE
"drsubc" FLOAT DOUBLE
"m1rs" FLOAT DOUBLE
"m1rsi" FLOAT DOUBLE
"m1rsv" FLOAT DOUBLE
"m2rs" FLOAT DOUBLE
"m3rs" FLOAT DOUBLE
"m4rs" FLOAT DOUBLE
"m5rs" FLOAT DOUBLE
"mtrs" FLOAT DOUBLE
"amrs" FLOAT DOUBLE
"e1rstol" FLOAT DOUBLE
"e1rs" FLOAT DOUBLE
"e1rsi" FLOAT DOUBLE
"mars" FLOAT DOUBLE
"rsub" FLOAT DOUBLE
"rsubc" FLOAT DOUBLE
"tnwrs" FLOAT DOUBLE
"tm1rs" FLOAT DOUBLE
"tm2rs" FLOAT DOUBLE
"tm3rs" FLOAT DOUBLE
"tm4rs" FLOAT DOUBLE
"tm5rs" FLOAT DOUBLE
"tmxrs" FLOAT DOUBLE
"tmtrs" FLOAT DOUBLE
"tamrs" FLOAT DOUBLE
"te1rs" FLOAT DOUBLE
"tmars" FLOAT DOUBLE
"trsub" FLOAT DOUBLE
"tacrsub" FLOAT DOUBLE
"trsubc" FLOAT DOUBLE
"tpcrsi" FLOAT DOUBLE
"TOPMET" FLOAT DOUBLE
"PHD_COATING" FLOAT DOUBLE
"amres" FLOAT DOUBLE
"antiparallel_diodes" FLOAT DOUBLE
"bondpad" FLOAT DOUBLE
"bondpadx" FLOAT DOUBLE
"cmim" FLOAT DOUBLE
"cmimx" FLOAT DOUBLE
"corrPoint" FLOAT DOUBLE
"devicepad" FLOAT DOUBLE
"diodenwx" FLOAT DOUBLE
"diodenx" FLOAT DOUBLE
"diodepisx" FLOAT DOUBLE
"diodepnw" FLOAT DOUBLE
"diodepwpi" FLOAT DOUBLE
"dipdnw" FLOAT DOUBLE
"divpnp" FLOAT DOUBLE
"double_diode_N" FLOAT DOUBLE
"dualcmim" FLOAT DOUBLE
"dualcmimx" FLOAT DOUBLE
"efuse" FLOAT DOUBLE
"esdndsx" FLOAT DOUBLE
"esdmodn" FLOAT DOUBLE
"esdmodnm" FLOAT DOUBLE
"esdmodp" FLOAT DOUBLE
"esmoddpm" FLOAT DOUBLE
"esdvpnpnw" FLOAT DOUBLE
"m1res" FLOAT DOUBLE
"m2res" FLOAT DOUBLE
"m3res" FLOAT DOUBLE
"m4res" FLOAT DOUBLE
"m5res" FLOAT DOUBLE
"mimTie_pw" FLOAT DOUBLE
"mimTie_sx" FLOAT DOUBLE
"mlres" FLOAT DOUBLE
"mosvarm" FLOAT DOUBLE
"mosvarmx" FLOAT DOUBLE
"mosvart" FLOAT DOUBLE
"mosvartx" FLOAT DOUBLE
"mtres" FLOAT DOUBLE
"nfet" FLOAT DOUBLE
"nfethvt" FLOAT DOUBLE
"nfethvtx" FLOAT DOUBLE
"nfetllx" FLOAT DOUBLE
"nfetm" FLOAT DOUBLE
"nfetmtwx" FLOAT DOUBLE
"nfetmx" FLOAT DOUBLE
"nfettw" FLOAT DOUBLE
"nfettwx" FLOAT DOUBLE
"nfetx" FLOAT DOUBLE
"opndres" FLOAT DOUBLE
"opndresx" FLOAT DOUBLE
"opnpcres" FLOAT DOUBLE
"opnpcresx" FLOAT DOUBLE
"oppdres" FLOAT DOUBLE
"oppdresx" FLOAT DOUBLE
"opppcres" FLOAT DOUBLE
"opppcresx" FLOAT DOUBLE
"oprppres" FLOAT DOUBLE
"oprppresx" FLOAT DOUBLE
"oprrpres" FLOAT DOUBLE
"oprrpresx" FLOAT DOUBLE
"pfet" FLOAT DOUBLE
"pfethvt" FLOAT DOUBLE
"pfethvtx" FLOAT DOUBLE
"pfetllx" FLOAT DOUBLE
"pfetm" FLOAT DOUBLE
"pfetmx" FLOAT DOUBLE
"pfetx" FLOAT DOUBLE
"probepad" FLOAT DOUBLE
"sblkndres" FLOAT DOUBLE
"sblkndresx" FLOAT DOUBLE
"sblkpdres" FLOAT DOUBLE
"sblkpdresx" FLOAT DOUBLE
"subc" FLOAT DOUBLE
"subcx" FLOAT DOUBLE
"tdndsx" FLOAT DOUBLE
"tdpdnw" FLOAT DOUBLE
"tdpdnw_3" FLOAT DOUBLE
"vncap" FLOAT DOUBLE
"vncapx" FLOAT DOUBLE
"wdnwsx" FLOAT DOUBLE
"wdpisx" FLOAT DOUBLE
"wdpwpi" FLOAT DOUBLE
"cor_hv_nmos" FLOAT DOUBLE
"cor_hv_pmos" FLOAT DOUBLE
"cor_lv_nmos" FLOAT DOUBLE
"cor_lv_pmos" FLOAT DOUBLE
"cor_hv_bip" FLOAT DOUBLE
"cor_dio" FLOAT DOUBLE
"cor_res" FLOAT DOUBLE
"cor_hv_res" FLOAT DOUBLE
"cor_cap" FLOAT DOUBLE
"cor_ind" FLOAT DOUBLE
"cor_tox" FLOAT DOUBLE
"cor_toxm" FLOAT DOUBLE
"cor_toxh" FLOAT DOUBLE
"cor_pc" FLOAT DOUBLE
"cor_rx" FLOAT DOUBLE
"cor_pcm" FLOAT DOUBLE
"cor_rxm" FLOAT DOUBLE
"dnoin" FLOAT DOUBLE
"dnointw" FLOAT DOUBLE
"dnoip" FLOAT DOUBLE
"dnoinm" FLOAT DOUBLE
"dnoinmtw" FLOAT DOUBLE
"dnoipm" FLOAT DOUBLE
"dnoinll" FLOAT DOUBLE
"dnoipll" FLOAT DOUBLE
"dnointh" FLOAT DOUBLE
"dnoipth" FLOAT DOUBLE
"dnoiopnd" FLOAT DOUBLE
"dnoioppd" FLOAT DOUBLE
"dnoipd" FLOAT DOUBLE
"dnoisblkn" FLOAT DOUBLE
"dnoisblkp" FLOAT DOUBLE
"gstis" FLOAT DOUBLE
"gsh" FLOAT DOUBLE
"gbv" FLOAT DOUBLE
"waferthk" FLOAT DOUBLE
"esd_event" FLOAT DOUBLE
"esd_exit" FLOAT DOUBLE
"esd_extr" FLOAT DOUBLE
"mres" FLOAT DOUBLE
"corres" FLOAT DOUBLE
"corrx" FLOAT DOUBLE
"corrxres" FLOAT DOUBLE
"corpc" FLOAT DOUBLE
"coropopnd" FLOAT DOUBLE
"coropoppd" FLOAT DOUBLE
"coropopnpc" FLOAT DOUBLE
"corrpcopnpc" FLOAT DOUBLE
"corrcthkopnpc" FLOAT DOUBLE
"coropopppc" FLOAT DOUBLE
"corrpcopppc" FLOAT DOUBLE
"corrcthkopppc" FLOAT DOUBLE
"coropoprrp" FLOAT DOUBLE
"corrpcoprrp" FLOAT DOUBLE
"cordlbnoprrp" FLOAT DOUBLE
"corrcthkoprrp" FLOAT DOUBLE
"coropoprpp" FLOAT DOUBLE
"corrpcoprpp" FLOAT DOUBLE
"corrcthkoprpp" FLOAT DOUBLE
"coropsblkn" FLOAT DOUBLE
"coropsblkp" FLOAT DOUBLE
"mcap" FLOAT DOUBLE
"corcap" FLOAT DOUBLE
"corind" FLOAT DOUBLE
"cormimqamim" FLOAT DOUBLE
"cormimpmim" FLOAT DOUBLE
"cordelmqmim" FLOAT DOUBLE
"cordelmtmim" FLOAT DOUBLE
"corvftmim" FLOAT DOUBLE
"core1rsmim" FLOAT DOUBLE
"coramrsmim" FLOAT DOUBLE
"cormtrsmim" FLOAT DOUBLE
"cormttmim" FLOAT DOUBLE
"coramtmim" FLOAT DOUBLE
"core1tmim" FLOAT DOUBLE
"corm1tvart" FLOAT DOUBLE
"corpcrsivart" FLOAT DOUBLE
"corcomvvart" FLOAT DOUBLE
"corm1tvarm" FLOAT DOUBLE
"corpcrsivarm" FLOAT DOUBLE
"corcomvvarm" FLOAT DOUBLE
"corpcrenvarm" FLOAT DOUBLE
"corm1tpcdcap" FLOAT DOUBLE
"corpcrsipcdcap" FLOAT DOUBLE
"corcomvpcdcap" FLOAT DOUBLE
"mbip" FLOAT DOUBLE
"cordio" FLOAT DOUBLE
"djsdi" FLOAT DOUBLE
"dcjdi" FLOAT DOUBLE
"dcjswdi" FLOAT DOUBLE
"djsesdndsx" FLOAT DOUBLE
"dcjesdndsx" FLOAT DOUBLE
"dcjswesdndsx" FLOAT DOUBLE
"mmmos" FLOAT DOUBLE
"lovn" FLOAT DOUBLE
"nsubon" FLOAT DOUBLE
"toxon" FLOAT DOUBLE
"toxovon" FLOAT DOUBLE
"vfbon" FLOAT DOUBLE
"wotn" FLOAT DOUBLE
"vfblwn" FLOAT DOUBLE
"ctln" FLOAT DOUBLE
"thesatln" FLOAT DOUBLE
"alp1l1n" FLOAT DOUBLE
"dlqn" FLOAT DOUBLE
"mueon" FLOAT DOUBLE
"npckn" FLOAT DOUBLE
"vfbwn" FLOAT DOUBLE
"lovntw" FLOAT DOUBLE
"nsubontw" FLOAT DOUBLE
"toxontw" FLOAT DOUBLE
"toxovontw" FLOAT DOUBLE
"vfbontw" FLOAT DOUBLE
"wotntw" FLOAT DOUBLE
"vfblwntw" FLOAT DOUBLE
"ctlntw" FLOAT DOUBLE
"thesatlntw" FLOAT DOUBLE
"alp1l1ntw" FLOAT DOUBLE
"dlqntw" FLOAT DOUBLE
"mueontw" FLOAT DOUBLE
"npckntw" FLOAT DOUBLE
"vfbwntw" FLOAT DOUBLE
"lapnth" FLOAT DOUBLE
"toxonth" FLOAT DOUBLE
"wotnth" FLOAT DOUBLE
"thesatlnth" FLOAT DOUBLE
"vfbwnth" FLOAT DOUBLE
"lovnll" FLOAT DOUBLE
"nsubonll" FLOAT DOUBLE
"toxonll" FLOAT DOUBLE
"toxovonll" FLOAT DOUBLE
"vfbonll" FLOAT DOUBLE
"wotnll" FLOAT DOUBLE
"vfblwnll" FLOAT DOUBLE
"ctlnll" FLOAT DOUBLE
"thesatlnll" FLOAT DOUBLE
"alp1l1nll" FLOAT DOUBLE
"dlqnll" FLOAT DOUBLE
"mueonll" FLOAT DOUBLE
"npcknll" FLOAT DOUBLE
"vfbwnll" FLOAT DOUBLE
"lovp" FLOAT DOUBLE
"nsubop" FLOAT DOUBLE
"toxop" FLOAT DOUBLE
"toxovop" FLOAT DOUBLE
"vfbop" FLOAT DOUBLE
"vfblp" FLOAT DOUBLE
"vfblwp" FLOAT DOUBLE
"ctlp" FLOAT DOUBLE
"thesatlp" FLOAT DOUBLE
"alplp" FLOAT DOUBLE
"dlqp" FLOAT DOUBLE
"mueop" FLOAT DOUBLE
"thesatlwp" FLOAT DOUBLE
"vfbwp" FLOAT DOUBLE
"lovpll" FLOAT DOUBLE
"nsubopll" FLOAT DOUBLE
"toxopll" FLOAT DOUBLE
"toxovopll" FLOAT DOUBLE
"vfbopll" FLOAT DOUBLE
"vfblwpll" FLOAT DOUBLE
"ctlpll" FLOAT DOUBLE
"thesatlpll" FLOAT DOUBLE
"alplpll" FLOAT DOUBLE
"dlqpll" FLOAT DOUBLE
"mueopll" FLOAT DOUBLE
"npckpll" FLOAT DOUBLE
"thesatlwpll" FLOAT DOUBLE
"vfbwpll" FLOAT DOUBLE
"lappth" FLOAT DOUBLE
"toxopth" FLOAT DOUBLE
"vfbopth" FLOAT DOUBLE
"wotpth" FLOAT DOUBLE
"vfblpth" FLOAT DOUBLE
"thesatlpth" FLOAT DOUBLE
"ileakn" FLOAT DOUBLE
"djsn" FLOAT DOUBLE
"dcjn" FLOAT DOUBLE
"dcjswn" FLOAT DOUBLE
"ileaknwx" FLOAT DOUBLE
"djsnwx" FLOAT DOUBLE
"dcjnwx" FLOAT DOUBLE
"dcjswnwx" FLOAT DOUBLE
"ileakpnw" FLOAT DOUBLE
"djspnw" FLOAT DOUBLE
"dcjpnw" FLOAT DOUBLE
"dcjswpnw" FLOAT DOUBLE
"djspisx" FLOAT DOUBLE
"dcjpisx" FLOAT DOUBLE
"dcjswpisx" FLOAT DOUBLE
"dcjpwpi" FLOAT DOUBLE
"dcjswpwpi" FLOAT DOUBLE
"djsp" FLOAT DOUBLE
"dcjp" FLOAT DOUBLE
"dcjswp" FLOAT DOUBLE
"mcmosm" FLOAT DOUBLE
"lovnm" FLOAT DOUBLE
"nsubonm" FLOAT DOUBLE
"toxonm" FLOAT DOUBLE
"toxovonm" FLOAT DOUBLE
"vfbonm" FLOAT DOUBLE
"wotnm" FLOAT DOUBLE
"vfblwnm" FLOAT DOUBLE
"fol1nm" FLOAT DOUBLE
"ctlnm" FLOAT DOUBLE
"thesatlnm" FLOAT DOUBLE
"alp1l1nm" FLOAT DOUBLE
"dlqnm" FLOAT DOUBLE
"mueonm" FLOAT DOUBLE
"vfbwnm" FLOAT DOUBLE
"lovnmtw" FLOAT DOUBLE
"nsubonmtw" FLOAT DOUBLE
"toxonmtw" FLOAT DOUBLE
"toxovonmtw" FLOAT DOUBLE
"vfbonmtw" FLOAT DOUBLE
"wotnmtw" FLOAT DOUBLE
"vfblwnmtw" FLOAT DOUBLE
"fol1nmtw" FLOAT DOUBLE
"ctlnmtw" FLOAT DOUBLE
"thesatlnmtw" FLOAT DOUBLE
"alp1l1nmtw" FLOAT DOUBLE
"dlqnmtw" FLOAT DOUBLE
"mueonmtw" FLOAT DOUBLE
"vfbwnmtw" FLOAT DOUBLE
"lovpm" FLOAT DOUBLE
"nsubopm" FLOAT DOUBLE
"toxopm" FLOAT DOUBLE
"toxovopm" FLOAT DOUBLE
"vfbopm" FLOAT DOUBLE
"wotpm" FLOAT DOUBLE
"vfblpm" FLOAT DOUBLE
"vfblwpm" FLOAT DOUBLE
"ctlpm" FLOAT DOUBLE
"thesatlpm" FLOAT DOUBLE
"alplpm" FLOAT DOUBLE
"dlqpm" FLOAT DOUBLE
"mueopm" FLOAT DOUBLE
"vfbwpm" FLOAT DOUBLE
) PROP(
"key" "parameters"
)
VALUE
"top-level" "top-level" (
2.700000000000000e+01
2.700000000000000e+01
0.000000000000000e+00
1.000000000000000e-06
1.000000000000000e+00
1.800000000000000e-07
6.000000000000000e-06
3.141592654000000e+00
8.854200000000000e-12
1.190000000000000e+01
1.256600000000000e-06
4.100000000000000e+00
8.000000000000000e+00
0.000000000000000e+00
0.000000000000000e+00
0.000000000000000e+00
0.000000000000000e+00
0.000000000000000e+00
0.000000000000000e+00
0.000000000000000e+00
0.000000000000000e+00
0.000000000000000e+00
0.000000000000000e+00
0.000000000000000e+00
0.000000000000000e+00
0.000000000000000e+00
0.000000000000000e+00
0.000000000000000e+00
0.000000000000000e+00
0.000000000000000e+00
0.000000000000000e+00
0.000000000000000e+00
0.000000000000000e+00
0.000000000000000e+00
0.000000000000000e+00
0.000000000000000e+00
0.000000000000000e+00
0.000000000000000e+00
0.000000000000000e+00
0.000000000000000e+00
0.000000000000000e+00
0.000000000000000e+00
0.000000000000000e+00
0.000000000000000e+00
0.000000000000000e+00
0.000000000000000e+00
0.000000000000000e+00
0.000000000000000e+00
0.000000000000000e+00
0.000000000000000e+00
0.000000000000000e+00
0.000000000000000e+00
0.000000000000000e+00
0.000000000000000e+00
0.000000000000000e+00
0.000000000000000e+00
0.000000000000000e+00
0.000000000000000e+00
0.000000000000000e+00
0.000000000000000e+00
0.000000000000000e+00
0.000000000000000e+00
0.000000000000000e+00
0.000000000000000e+00
0.000000000000000e+00
0.000000000000000e+00
0.000000000000000e+00
0.000000000000000e+00
0.000000000000000e+00
0.000000000000000e+00
0.000000000000000e+00
0.000000000000000e+00
0.000000000000000e+00
0.000000000000000e+00
0.000000000000000e+00
0.000000000000000e+00
0.000000000000000e+00
0.000000000000000e+00
0.000000000000000e+00
0.000000000000000e+00
0.000000000000000e+00
0.000000000000000e+00
0.000000000000000e+00
0.000000000000000e+00
0.000000000000000e+00
0.000000000000000e+00
0.000000000000000e+00
0.000000000000000e+00
0.000000000000000e+00
0.000000000000000e+00
0.000000000000000e+00
0.000000000000000e+00
0.000000000000000e+00
0.000000000000000e+00
0.000000000000000e+00
0.000000000000000e+00
0.000000000000000e+00
0.000000000000000e+00
0.000000000000000e+00
0.000000000000000e+00
0.000000000000000e+00
0.000000000000000e+00
0.000000000000000e+00
0.000000000000000e+00
0.000000000000000e+00
0.000000000000000e+00
0.000000000000000e+00
0.000000000000000e+00
0.000000000000000e+00
0.000000000000000e+00
0.000000000000000e+00
0.000000000000000e+00
0.000000000000000e+00
0.000000000000000e+00
0.000000000000000e+00
0.000000000000000e+00
0.000000000000000e+00
0.000000000000000e+00
0.000000000000000e+00
0.000000000000000e+00
0.000000000000000e+00
0.000000000000000e+00
0.000000000000000e+00
0.000000000000000e+00
0.000000000000000e+00
0.000000000000000e+00
0.000000000000000e+00
0.000000000000000e+00
0.000000000000000e+00
0.000000000000000e+00
0.000000000000000e+00
0.000000000000000e+00
0.000000000000000e+00
0.000000000000000e+00
0.000000000000000e+00
0.000000000000000e+00
0.000000000000000e+00
0.000000000000000e+00
0.000000000000000e+00
0.000000000000000e+00
0.000000000000000e+00
0.000000000000000e+00
0.000000000000000e+00
0.000000000000000e+00
0.000000000000000e+00
0.000000000000000e+00
0.000000000000000e+00
0.000000000000000e+00
0.000000000000000e+00
0.000000000000000e+00
0.000000000000000e+00
0.000000000000000e+00
0.000000000000000e+00
0.000000000000000e+00
0.000000000000000e+00
0.000000000000000e+00
0.000000000000000e+00
0.000000000000000e+00
0.000000000000000e+00
0.000000000000000e+00
0.000000000000000e+00
0.000000000000000e+00
0.000000000000000e+00
0.000000000000000e+00
0.000000000000000e+00
0.000000000000000e+00
0.000000000000000e+00
0.000000000000000e+00
0.000000000000000e+00
0.000000000000000e+00
0.000000000000000e+00
0.000000000000000e+00
0.000000000000000e+00
0.000000000000000e+00
0.000000000000000e+00
0.000000000000000e+00
0.000000000000000e+00
0.000000000000000e+00
0.000000000000000e+00
0.000000000000000e+00
0.000000000000000e+00
0.000000000000000e+00
0.000000000000000e+00
0.000000000000000e+00
0.000000000000000e+00
0.000000000000000e+00
0.000000000000000e+00
0.000000000000000e+00
0.000000000000000e+00
0.000000000000000e+00
0.000000000000000e+00
0.000000000000000e+00
0.000000000000000e+00
0.000000000000000e+00
0.000000000000000e+00
0.000000000000000e+00
0.000000000000000e+00
0.000000000000000e+00
0.000000000000000e+00
0.000000000000000e+00
0.000000000000000e+00
0.000000000000000e+00
0.000000000000000e+00
0.000000000000000e+00
0.000000000000000e+00
0.000000000000000e+00
0.000000000000000e+00
0.000000000000000e+00
0.000000000000000e+00
0.000000000000000e+00
4.200000000000000e+02
4.300000000000000e+02
5.400000000000000e-10
3.100000000000000e-10
0.000000000000000e+00
0.000000000000000e+00
0.000000000000000e+00
0.000000000000000e+00
0.000000000000000e+00
0.000000000000000e+00
0.000000000000000e+00
-5.999999999999999e-08
-5.999999999999999e-08
0.000000000000000e+00
0.000000000000000e+00
-3.000000000000000e-08
0.000000000000000e+00
4.400000000000000e-07
0.000000000000000e+00
0.000000000000000e+00
0.000000000000000e+00
0.000000000000000e+00
2.000000000000000e-07
3.300000000000000e-07
3.300000000000000e-07
0.000000000000000e+00
0.000000000000000e+00
0.000000000000000e+00
0.000000000000000e+00
0.000000000000000e+00
0.000000000000000e+00
0.000000000000000e+00
0.000000000000000e+00
0.000000000000000e+00
0.000000000000000e+00
0.000000000000000e+00
0.000000000000000e+00
0.000000000000000e+00
0.000000000000000e+00
0.000000000000000e+00
0.000000000000000e+00
0.000000000000000e+00
0.000000000000000e+00
6.000000000000000e-09
1.000000000000000e-08
-3.160000000000000e-08
-3.160000000000000e-08
-3.160000000000000e-08
-3.160000000000000e-08
-3.160000000000000e-08
-1.116000000000000e-07
0.000000000000000e+00
-1.116000000000000e-07
0.000000000000000e+00
0.000000000000000e+00
0.000000000000000e+00
0.000000000000000e+00
0.000000000000000e+00
0.000000000000000e+00
0.000000000000000e+00
0.000000000000000e+00
0.000000000000000e+00
0.000000000000000e+00
0.000000000000000e+00
0.000000000000000e+00
0.000000000000000e+00
0.000000000000000e+00
0.000000000000000e+00
0.000000000000000e+00
0.000000000000000e+00
0.000000000000000e+00
0.000000000000000e+00
0.000000000000000e+00
0.000000000000000e+00
0.000000000000000e+00
0.000000000000000e+00
0.000000000000000e+00
0.000000000000000e+00
0.000000000000000e+00
0.000000000000000e+00
0.000000000000000e+00
0.000000000000000e+00
0.000000000000000e+00
0.000000000000000e+00
0.000000000000000e+00
0.000000000000000e+00
0.000000000000000e+00
0.000000000000000e+00
0.000000000000000e+00
0.000000000000000e+00
0.000000000000000e+00
0.000000000000000e+00
0.000000000000000e+00
0.000000000000000e+00
0.000000000000000e+00
0.000000000000000e+00
2.100000000000000e-07
2.600000000000000e-07
3.100000000000000e-05
2.000000000000000e-11
4.250000000000000e-07
4.250000000000000e-07
3.750000000000000e-07
3.750000000000000e-07
3.250000000000000e-07
3.250000000000000e-07
4.800000000000000e-07
4.800000000000000e-07
4.800000000000000e-07
4.800000000000000e-07
4.800000000000000e-07
4.800000000000000e-07
4.800000000000000e-07
4.800000000000000e-07
4.800000000000000e-07
4.800000000000000e-07
4.000000000000000e-06
3.000000000000000e-06
4.000000000000000e-06
4.000000000000000e-07
4.000000000000000e-07
5.500000000000000e-07
5.500000000000000e-07
5.500000000000000e-07
5.500000000000000e-07
5.500000000000000e-07
5.500000000000000e-07
4.000000000000000e-07
4.000000000000000e-07
5.500000000000000e-07
5.500000000000000e-07
4.000000000000000e-06
4.000000000000000e-06
3.000000000000000e-06
0.000000000000000e+00
0.000000000000000e+00
0.000000000000000e+00
0.000000000000000e+00
6.200000000000000e-02
7.099999999999999e-02
8.400000000000001e-02
8.900000000000000e-02
8.900000000000000e-02
8.900000000000000e-02
8.900000000000000e-02
8.900000000000000e-02
7.000000000000000e-03
0.000000000000000e+00
6.300000000000000e-03
6.000000000000000e-03
7.000000000000000e-03
1.580000000000000e-01
6.000000000000000e-09
2.000000000000000e-03
3.300000000000000e-03
3.300000000000000e-03
3.300000000000000e-03
3.300000000000000e-03
3.300000000000000e-03
3.300000000000000e-03
3.300000000000000e-03
3.300000000000000e-03
3.300000000000000e-03
3.300000000000000e-03
4.000000000000000e-03
2.000000000000000e-03
3.600000000000000e-03
3.200000000000000e-03
6.000000000000000e+00
2.000000000000000e+00
1.000000000000000e+00
1.000000000000000e+00
1.000000000000000e+00
1.000000000000000e+00
1.000000000000000e+00
1.000000000000000e+00
1.000000000000000e+00
1.000000000000000e+00
1.000000000000000e+00
1.000000000000000e+00
1.000000000000000e+00
1.000000000000000e+00
1.000000000000000e+00
1.000000000000000e+00
1.000000000000000e+00
1.000000000000000e+00
1.000000000000000e+00
1.000000000000000e+00
1.000000000000000e+00
1.000000000000000e+00
1.000000000000000e+00
1.000000000000000e+00
1.000000000000000e+00
1.000000000000000e+00
1.000000000000000e+00
1.000000000000000e+00
1.000000000000000e+00
1.000000000000000e+00
1.000000000000000e+00
1.000000000000000e+00
1.000000000000000e+00
1.000000000000000e+00
1.000000000000000e+00
1.000000000000000e+00
1.000000000000000e+00
1.000000000000000e+00
1.000000000000000e+00
1.000000000000000e+00
1.000000000000000e+00
1.000000000000000e+00
1.000000000000000e+00
1.000000000000000e+00
1.000000000000000e+00
1.000000000000000e+00
1.000000000000000e+00
1.000000000000000e+00
1.000000000000000e+00
1.000000000000000e+00
1.000000000000000e+00
1.000000000000000e+00
1.000000000000000e+00
1.000000000000000e+00
1.000000000000000e+00
1.000000000000000e+00
1.000000000000000e+00
1.000000000000000e+00
1.000000000000000e+00
1.000000000000000e+00
1.000000000000000e+00
1.000000000000000e+00
1.000000000000000e+00
1.000000000000000e+00
1.000000000000000e+00
1.000000000000000e+00
1.000000000000000e+00
1.000000000000000e+00
1.000000000000000e+00
1.000000000000000e+00
1.000000000000000e+00
1.000000000000000e+00
1.000000000000000e+00
1.000000000000000e+00
1.000000000000000e+00
1.000000000000000e+00
1.000000000000000e+00
1.000000000000000e+00
1.000000000000000e+00
1.000000000000000e+00
1.000000000000000e+00
1.000000000000000e+00
1.000000000000000e+00
1.000000000000000e+00
0.000000000000000e+00
0.000000000000000e+00
0.000000000000000e+00
0.000000000000000e+00
0.000000000000000e+00
0.000000000000000e+00
0.000000000000000e+00
0.000000000000000e+00
0.000000000000000e+00
0.000000000000000e+00
0.000000000000000e+00
0.000000000000000e+00
0.000000000000000e+00
0.000000000000000e+00
0.000000000000000e+00
0.000000000000000e+00
0.000000000000000e+00
0.000000000000000e+00
0.000000000000000e+00
0.000000000000000e+00
0.000000000000000e+00
0.000000000000000e+00
0.000000000000000e+00
0.000000000000000e+00
0.000000000000000e+00
0.000000000000000e+00
0.000000000000000e+00
0.000000000000000e+00
0.000000000000000e+00
0.000000000000000e+00
0.000000000000000e+00
0.000000000000000e+00
1.000000000000000e+00
2.000000000000000e+00
2.000000000000000e+00
7.370000000000000e+02
0.000000000000000e+00
1.000000000000000e+00
0.000000000000000e+00
0.000000000000000e+00
0.000000000000000e+00
0.000000000000000e+00
0.000000000000000e+00
0.000000000000000e+00
0.000000000000000e+00
0.000000000000000e+00
0.000000000000000e+00
0.000000000000000e+00
0.000000000000000e+00
0.000000000000000e+00
0.000000000000000e+00
0.000000000000000e+00
0.000000000000000e+00
0.000000000000000e+00
0.000000000000000e+00
0.000000000000000e+00
0.000000000000000e+00
0.000000000000000e+00
0.000000000000000e+00
0.000000000000000e+00
0.000000000000000e+00
0.000000000000000e+00
0.000000000000000e+00
0.000000000000000e+00
0.000000000000000e+00
0.000000000000000e+00
0.000000000000000e+00
0.000000000000000e+00
0.000000000000000e+00
0.000000000000000e+00
0.000000000000000e+00
0.000000000000000e+00
0.000000000000000e+00
0.000000000000000e+00
0.000000000000000e+00
0.000000000000000e+00
0.000000000000000e+00
0.000000000000000e+00
0.000000000000000e+00
0.000000000000000e+00
0.000000000000000e+00
0.000000000000000e+00
0.000000000000000e+00
0.000000000000000e+00
0.000000000000000e+00
0.000000000000000e+00
0.000000000000000e+00
0.000000000000000e+00
0.000000000000000e+00
0.000000000000000e+00
0.000000000000000e+00
0.000000000000000e+00
0.000000000000000e+00
0.000000000000000e+00
4.000000000000000e-08
4.100000000000000e+23
3.740000000000000e-09
3.740000000000000e-09
-1.173000000000000e+00
2.000000000000000e-08
-7.000000000000000e-04
2.800000000000000e-02
4.050000000000000e+00
2.420000000000000e-02
-3.800000000000000e-08
7.400000000000000e+00
8.200000000000000e+23
2.350000000000000e-02
4.000000000000000e-08
4.100000000000000e+23
3.740000000000000e-09
3.740000000000000e-09
-1.173000000000000e+00
2.000000000000000e-08
-7.000000000000000e-04
2.800000000000000e-02
4.050000000000000e+00
2.420000000000000e-02
-3.800000000000000e-08
7.400000000000000e+00
8.200000000000000e+23
2.350000000000000e-02
2.250000000000000e-08
3.740000000000000e-09
-2.757000000000000e-08
6.543500000000000e-01
1.681100000000000e-02
3.660000000000000e-08
3.150000000000000e+23
4.000000000000000e-09
4.000000000000000e-09
-7.150000000000000e-01
2.000000000000000e-09
-1.400000000000000e-03
2.190000000000000e-01
2.200000000000000e+00
9.200000000000000e-03
0.000000000000000e+00
3.100000000000000e-01
9.700000000000000e+23
4.300000000000000e-02
4.460000000000000e-08
4.650000000000000e+23
3.840000000000000e-09
3.840000000000000e-09
-1.235000000000000e+00
-8.999999999999999e-03