HEADER
"PSFversion" "1.00"
"Run Generator" "drlRun rev. 1.0"
"Run Time Stamp" "Aug 25 14:48:01 2017"
"simulator" "spectre"
"date" "Aug 25 14:48:01 2017"
"netlistDir" "../../../../../../../Sim/NOISE_NMOS/spectre/schematic/netlist"
TYPE
"runObject" STRUCT(
"logName" ARRAY( * ) STRING *
"parent" STRING *
"sweepVariable" ARRAY( * ) STRING *
) PROP( "key" "runObject" )
VALUE
"Run1" "runObject" (
(
"logFile"
"artistLogFile"
)
""
()
)
END
